 &FCI NORB= 6, NELEC= 6, MS2= 0
  ORBSYM=1,1,1,1,1,1
  ISYM=1
 &END
 -2.387976044557937882e+00        6        6        0        0
 -3.223008853876887514e+00        1        1        0        0
  1.455896605734086024e-15        2        5        0        0
 -1.039790366218538268e-15        1        3        0        0
 -1.732920231467932609e-15        1        4        0        0
 -1.563488994034043642e-15        1        5        0        0
 -2.812881861513890414e+00        4        4        0        0
 -3.223008853876884849e+00        2        2        0        0
 -1.889390498045960801e-15        2        4        0        0
  3.333448544303363666e-15        2        6        0        0
 -2.812881861513891302e+00        5        5        0        0
 -3.138713250682962475e+00        3        3        0        0
 -1.647119872114435608e-15        3        4        0        0
  2.846503548021494408e-15        4        6        0        0
  5.849179958410800628e-01        3        3        3        3
 -4.096018300583969922e-03        2        6        3        4
 -3.442090363286673393e-02        2        5        3        6
  4.252421270329349856e-02        2        5        2        5
 -5.845646971312421641e-02        2        5        2        4
  8.546131064051372406e-02        2        4        3        6
 -5.845646971312419560e-02        1        5        2        5
  1.641175147459759953e-01        2        4        2        4
  5.405366742268455926e-01        3        3        4        4
  1.276756478318930021e-15        1        5        5        5
 -1.443289932012703503e-15        1        1        3        6
  4.252421270329352632e-02        1        4        1        4
  6.199586911958758773e-01        2        2        6        6
  1.649119466899604675e-02        1        2        4        5
  6.047495636536696084e-01        4        4        4        4
 -1.443289932012703503e-15        2        2        3        6
 -4.564335216990208013e-03        1        4        2        5
  3.533445783160171771e-02        2        6        2        6
  5.177651308167299238e-01        2        2        3        3
 -1.585641652141350777e-02        1        2        5        5
  7.600248792802055675e-01        6        6        6        6
  4.716361005253073835e-02        5        6        5        6
  9.181505237805967501e-02        3        6        3        6
  6.047495636536696084e-01        5        5        5        5
 -1.646740233881993523e-04        2        3        5        6
  1.261576372596727447e-01        1        5        2        4
  2.806054365640912873e-02        1        3        1        3
 -4.096018300583977728e-03        1        6        3        5
  1.272535564513432936e-15        3        6        3        4
  4.716361005253075223e-02        4        6        4        6
 -1.585641652141343838e-02        2        2        4        5
  6.213509920265586350e-01        4        4        6        6
  5.546128375910370778e-01        4        4        5        5
  1.995908871028089217e-15        1        5        3        4
  1.585641652141342450e-02        1        1        4        5
  5.405366742268454816e-01        3        3        5        5
  4.088578852347273104e-04        1        3        5        6
  6.213509920265585240e-01        5        5        6        6
 -1.649736590115230073e-03        1        6        3        4
  3.533445783160177323e-02        1        6        1        6
  5.880333077562109878e-01        2        2        2        2
  5.845646971312420254e-02        1        4        2        4
  1.585641652141354593e-02        1        2        4        4
 -1.344469591510672191e-15        1        5        2        6
  2.506836303131621674e-02        4        5        4        5
  1.646740233882022526e-04        1        3        4        6
  3.816957442679203005e-02        3        4        3        4
  5.477103799018586683e-01        1        1        4        4
  6.199586911958770985e-01        1        1        6        6
 -1.279781869488540178e-15        2        6        2        4
  4.088578852347161431e-04        2        3        4        6
  1.649736590115225953e-03        2        6        3        5
  3.442090363286680332e-02        1        4        3        6
  5.940888586524073478e-01        3        3        6        6
  3.816957442679201618e-02        3        5        3        5
  8.546131064051368242e-02        1        5        3        6
  5.806927692398508034e-01        2        2        4        4
  5.477103799018583352e-01        2        2        5        5
  2.806054365640911485e-02        2        3        2        3
  5.880333077562118760e-01        1        1        1        1
  5.400521979791323979e-01        1        1        2        2
  5.177651308167302568e-01        1        1        3        3
  1.980826133486847825e-15        2        4        3        4
  5.806927692398511365e-01        1        1        5        5
  2.399055488853954130e-02        1        2        1        2
  5.845646971312423723e-02        1        5        1        4
  1.641175147459760786e-01        1        5        1        5
 -9.623012976171092703e+01        0        0        0        0
