 &FCI NORB=  10,NELEC=14,MS2=0,
  ORBSYM=1,1,1,1,1,1,1,1,1,1,
  ISYM=1,
 &END
 2.306865664447669    1    1    1    1
 -3.126055219234787e-12    1    1    2    1
 2.306351160735384    1    1    2    2
 -0.1914404665989883    1    1    3    1
 1.762219395774362e-13    1    1    3    2
 0.7868840776031883    1    1    3    3
 -4.81533873751213e-13    1    1    4    1
 0.1915180728917871    1    1    4    2
 2.934570017266358e-13    1    1    4    3
 0.6671458921502069    1    1    4    4
 0.68797909918196    1    1    5    5
 2.009443334118318e-15    1    1    6    1
 1.687881738498265e-15    1    1    6    2
 1.210160758749396e-15    1    1    6    3
 0.6879790991819598    1    1    6    6
 -0.08358407750287028    1    1    7    1
 4.307882484001739e-14    1    1    7    2
 -0.06550121646318494    1    1    7    3
 4.32655643381367e-13    1    1    7    4
 0.6854056843138083    1    1    7    7
 -4.591921301349622e-13    1    1    8    5
 1.078726403049983e-13    1    1    8    6
 0.7276833321892702    1    1    8    8
 -1.076685536586624e-13    1    1    9    5
 -4.591633713970923e-13    1    1    9    6
 0.7276833321892699    1    1    9    9
 -3.692058465029442e-13    1    1   10    1
 0.131266581854897    1    1   10    2
 3.879349295767716e-13    1    1   10    3
 0.04917036956781821    1    1   10    4
 -3.321719965025986e-13    1    1   10    7
 0.8958031735768641    1    1   10   10
 -3.126494606703528e-12    2    1    1    1
 1.824933981817307    2    1    2    1
 3.126711169674458e-12    2    1    2    2
 1.702377311174697e-13    2    1    3    1
 -0.1983666215425544    2    1    3    2
 0.1846139501174894    2    1    4    1
 1.571805539591323e-13    2    1    4    2
 -0.1721198434090963    2    1    4    3
 -7.524321644167182e-15    2    1    4    4
 1.527431516037781e-15    2    1    6    1
 1.610973075955558e-15    2    1    6    2
 -1.420766710031055e-15    2    1    6    3
 5.289695691678245e-15    2    1    6    4
 5.60331933040667e-14    2    1    7    1
 -0.06855659345356561    2    1    7    2
 2.119678496439423e-15    2    1    7    3
 -0.2521981419439306    2    1    7    4
 -1.820308225777144e-15    2    1    7    6
 8.026552848723056e-15    2    1    7    7
 0.2680769367387377    2    1    8    5
 -0.06288048589491094    2    1    8    6
 -1.975923403816508e-15    2    1    8    7
 -2.06856658987067e-15    2    1    9    4
 0.06288048589491106    2    1    9    5
 0.2680769367387377    2    1    9    6
 5.078988785721489e-15    2    1    9    7
 0.1496126043669843    2    1   10    1
 1.279518175795202e-13    2    1   10    2
 -0.2263328771835186    2    1   10    3
 3.246258628599896e-15    2    1   10    4
 -3.320602181278689e-15    2    1   10    6
 0.1933359536734658    2    1   10    7
 -1.337003588671545e-15    2    1   10   10
 2.306351160735383    2    2    1    1
 3.126268252016901e-12    2    2    2    1
 2.305838106377279    2    2    2    2
 -0.1913035533063531    2    2    3    1
 -5.031659480379102e-13    2    2    3    2
 0.7869699869626148    2    2    3    3
 1.509158475564167e-13    2    2    4    1
 0.1914693443790479    2    2    4    2
 -2.962079861162233e-13    2    2    4    3
 0.6670820515706284    2    2    4    4
 0.6880230406586388    2    2    5    5
 2.00710884683487e-15    2    2    6    1
 1.690548584780374e-15    2    2    6    2
 1.205804835242887e-15    2    2    6    3
 0.6880230406586387    2    2    6    6
 -0.08364308789204226    2    2    7    1
 -1.917978463051281e-13    2    2    7    2
 -0.06555911997087249    2    2    7    3
 -4.313681572336726e-13    2    2    7    4
 0.6853423268081694    2    2    7    7
 4.593740342271875e-13    2    2    8    5
 -1.075995559024183e-13    2    2    8    6
 0.7277125780396613    2    2    8    8
 1.078026234531144e-13    2    2    9    5
 4.594931539924817e-13    2    2    9    6
 0.7277125780396612    2    2    9    9
 1.433652694129553e-13    2    2   10    1
 0.1310504915873252    2    2   10    2
 -3.875080412532574e-13    2    2   10    3
 0.04924693669100564    2    2   10    4
 3.304336910985562e-13    2    2   10    7
 0.8958777131362093    2    2   10   10
 -0.1914404665989883    3    1    1    1
 1.702619665479946e-13    3    1    2    1
 -0.191303553306353    3    1    2    2
 0.03094823078981718    3    1    3    1
 0.002022297985084767    3    1    3    3
 4.453996950884954e-14    3    1    4    1
 -0.02581901859912856    3    1    4    2
 -7.277535162039182e-15    3    1    4    3
 -0.01256365236949502    3    1    4    4
 -0.001513885475076975    3    1    5    5
 -0.001513885475076975    3    1    6    6
 0.006565206510447267    3    1    7    1
 -0.007235154089188554    3    1    7    3
 -1.180672171394108e-14    3    1    7    4
 -0.00897612905638823    3    1    7    7
 7.375970829331465e-15    3    1    8    5
 -1.731757053796863e-15    3    1    8    6
 -0.00594881621711817    3    1    8    8
 1.729241829887775e-15    3    1    9    5
 7.37427531247516e-15    3    1    9    6
 -0.005948816217118168    3    1    9    9
 4.766642013307651e-14    3    1   10    1
 -0.02801217340663265    3    1   10    2
 -4.298579250588007e-15    3    1   10    3
 0.002876419332623119    3    1   10    4
 5.785259915445996e-15    3    1   10    7
 -0.005516368287878473    3    1   10   10
 1.763307425003058e-13    3    2    1    1
 -0.1983666215425544    3    2    2    1
 -5.032614691313247e-13    3    2    2    2
 0.03068704056892575    3    2    3    2
 1.763985569509202e-15    3    2    3    3
 -0.0260148600619438    3    2    4    1
 -4.4252741978735e-14    3    2    4    2
 0.008300134306770299    3    2    4    3
 -1.037613364622162e-14    3    2    4    4
 -1.291183946889604e-15    3    2    5    5
 -1.295880158710857e-15    3    2    6    6
 0.0070242229984477    3    2    7    2
 -6.299032559079333e-15    3    2    7    3
 0.01387800268925771    3    2    7    4
 -8.137437426374687e-15    3    2    7    7
 -0.008606721006899579    3    2    8    5
 0.002018804024917743    3    2    8    6
 -5.111545993443433e-15    3    2    8    8
 -0.002018804024917747    3    2    9    5
 -0.008606721006899579    3    2    9    6
 -5.105971643986037e-15    3    2    9    9
 -0.02753898357225296    3    2   10    1
 -4.751547656019876e-14    3    2   10    2
 0.004995123617625779    3    2   10    3
 2.317234910476935e-15    3    2   10    4
 -0.006826296324286129    3    2   10    7
 -4.696792885789353e-15    3    2   10   10
 0.7868840776031881    3    3    1    1
 0.7869699869626148    3    3    2    2
 0.00202229798508476    3    3    3    1
 1.768266462212393e-15    3    3    3    2
 0.747218150030275    3    3    3    3
 -1.613592872002873e-14    3    3    4    1
 0.0182719141873146    3    3    4    2
 -2.161885020622122e-15    3    3    4    3
 0.5119501394611868    3    3    4    4
 0.6171757554628707    3    3    5    5
 2.226492240647634e-15    3    3    6    3
 0.6171757554628706    3    3    6    6
 -0.02549703896179398    3    3    7    1
 -2.200970994879821e-14    3    3    7    2
 -0.1088646551953438    3    3    7    3
 1.086582950598059e-15    3    3    7    4
 1.604501817094579e-15    3    3    7    6
 0.5424367785711786    3    3    7    7
 0.5960361351608504    3    3    8    8
 0.5960361351608502    3    3    9    9
 1.87684021370748e-14    3    3   10    1
 -0.02213387659981874    3    3   10    2
 0.07353187639815166    3    3   10    4
 -1.605380709920656e-15    3    3   10    7
 0.7241338005117463    3    3   10   10
 -4.816651743775155e-13    4    1    1    1
 0.1846139501174894    4    1    2    1
 1.509585492130653e-13    4    1    2    2
 4.455120099996928e-14    4    1    3    1
 -0.02601486006194382    4    1    3    2
 -1.613313482908263e-14    4    1    3    3
 0.02871558478701913    4    1    4    1
 -0.004828713618123818    4    1    4    3
 -4.024587805423904e-15    4    1    4    4
 -6.789712867633585e-15    4    1    5    5
 -6.788120997616885e-15    4    1    6    6
 2.549627016973773e-14    4    1    7    1
 -0.01478375452012262    4    1    7    2
 4.381337649917702e-15    4    1    7    3
 0.002323559565355376    4    1    7    4
 -3.239361801587228e-15    4    1    7    7
 0.002673632834369114    4    1    8    5
 -0.000627130904190999    4    1    8    6
 -6.737695659420653e-15    4    1    8    8
 0.0006271309041910003    4    1    9    5
 0.002673632834369114    4    1    9    6
 -6.73977589415564e-15    4    1    9    9
 0.01482120306052006    4    1   10    1
 -0.01144831357445147    4    1   10    3
 -6.503852340496132e-15    4    1   10    4
 0.001708300603953647    4    1   10    7
 -1.837716392522099e-14    4    1   10   10
 0.1915180728917871    4    2    1    1
 1.57134007906003e-13    4    2    2    1
 0.1914693443790478    4    2    2    2
 -0.02581901859912857    4    2    3    1
 -4.424710402647683e-14    4    2    3    2
 0.01827191418731462    4    2    3    3
 0.02891148239791227    4    2    4    2
 -4.229338588351382e-15    4    2    4    3
 0.004910151131338382    4    2    4    4
 0.007728678125729187    4    2    5    5
 0.007728678125729184    4    2    6    6
 -0.01521576171553091    4    2    7    1
 -2.591748996252096e-14    4    2    7    2
 -0.004775180513357458    4    2    7    3
 1.747405335720956e-15    4    2    7    4
 0.00372426494038414    4    2    7    7
 2.333324118047151e-15    4    2    8    5
 0.00774325274640609    4    2    8    8
 2.333968026458598e-15    4    2    9    6
 0.007743252746406088    4    2    9    9
 0.01429094096865742    4    2   10    2
 -9.582658420528077e-15    4    2   10    3
 0.007462147318434141    4    2   10    4
 1.387432453100932e-15    4    2   10    7
 0.02094711835376005    4    2   10   10
 2.935261777959703e-13    4    3    1    1
 -0.1721198434090963    4    3    2    1
 -2.962242960605405e-13    4    3    2    2
 -7.280334879588659e-15    4    3    3    1
 0.008300134306770313    4    3    3    2
 -2.162650871484748e-15    4    3    3    3
 -0.004828713618123829    4    3    4    1
 -4.235118769891871e-15    4    3    4    2
 0.05647626742435925    4    3    4    3
 2.808488581633556e-15    4    3    4    4
 -1.931676337895724e-15    4    3    6    4
 -1.020409359709054e-15    4    3    6    6
 -0.0007778777746981847    4    3    7    2
 0.09308563583870694    4    3    7    4
 -3.298382491152157e-15    4    3    7    7
 -0.0941373500017989    4    3    8    5
 0.02208098309755508    4    3    8    6
 1.246621300221677e-15    4    3    9    4
 -0.02208098309755513    4    3    9    5
 -0.0941373500017989    4    3    9    6
 -1.805194635912314e-15    4    3    9    7
 -0.008134532441245358    4    3   10    1
 -6.560067712726459e-15    4    3   10    2
 0.05920441514899728    4    3   10    3
 -1.677417095402166e-15    4    3   10    4
 -0.05481457807965504    4    3   10    7
 -1.998669525557593e-15    4    3   10   10
 0.667145892150207    4    4    1    1
 -7.440601159321365e-15    4    4    2    1
 0.6670820515706283    4    4    2    2
 -0.01256365236949502    4    4    3    1
 -1.03974781257309e-14    4    4    3    2
 0.5119501394611867    4    4    3    3
 -3.978624649016113e-15    4    4    4    1
 0.004910151131338369    4    4    4    2
 2.825213459550377e-15    4    4    4    3
 0.5453708953383132    4    4    4    4
 0.5100096682483712    4    4    5    5
 0.510009668248371    4    4    6    6
 0.004206978893553513    4    4    7    1
 3.137874555360115e-15    4    4    7    2
 0.001135194731309607    4    4    7    3
 7.013803655051806e-15    4    4    7    4
 0.5570968878592948    4    4    7    7
 -4.334090223547796e-15    4    4    8    5
 1.142110460321268e-15    4    4    8    6
 0.535879306776852    4    4    8    8
 -4.252682122945538e-15    4    4    9    6
 0.5358793067768518    4    4    9    9
 -1.478794009829045e-14    4    4   10    1
 0.01622351951586629    4    4   10    2
 1.602223953364421e-15    4    4   10    3
 -0.01981441502460437    4    4   10    4
 -3.518974261512008e-15    4    4   10    7
 0.559468359013495    4    4   10   10
 0.00977097488297461    5    1    5    1
 0.0166207301027445    5    1    5    3
 9.73974142531219e-15    5    1    5    4
 0.004861044031656127    5    1    7    5
 -1.935515992766027e-14    5    1    8    1
 0.0115736054141908    5    1    8    2
 -9.569619066057984e-15    5    1    8    3
 -0.01519614419597118    5    1    8    4
 -5.627514126887746e-15    5    1    8    7
 -4.538326510009816e-15    5    1    9    1
 0.002714720411437501    5    1    9    2
 -2.243938301181521e-15    5    1    9    3
 -0.003564427967569067    5    1    9    4
 -1.318775956417214e-15    5    1    9    7
 7.382341005912049e-15    5    1   10    5
 -0.0108237043930356    5    1   10    8
 -0.00253882262195595    5    1   10    9
 0.009269761552478278    5    2    5    2
 1.418184907691091e-14    5    2    5    3
 -0.01128142281405522    5    2    5    4
 4.335694622612901e-15    5    2    7    5
 0.0110112094343177    5    2    8    1
 1.933981544016343e-14    5    2    8    2
 0.01113461863965771    5    2    8    3
 -1.292365651756472e-14    5    2    8    4
 0.00684101496514971    5    2    8    7
 0.002582804055968885    5    2    9    1
 4.53772324092271e-15    5    2    9    2
 0.002611751084721481    5    2    9    3
 -3.032997586113898e-15    5    2    9    4
 0.001604637647147554    5    2    9    7
 -0.008593671482768189    5    2   10    5
 -9.268268813575238e-15    5    2   10    8
 -2.175524766410379e-15    5    2   10    9
 0.0166207301027445    5    3    5    1
 1.418285147620925e-14    5    3    5    2
 0.1049701474299303    5    3    5    3
 0.01384511582678479    5    3    7    5
 -1.575468433619493e-14    5    3    8    1
 0.01834987094103055    5    3    8    2
 -0.07214322620307476    5    3    8    4
 1.06689075449306e-15    5    3    8    7
 -3.694953516314454e-15    5    3    9    1
 0.004304170343476533    5    3    9    2
 -0.01692201191517233    5    3    9    4
 -0.06000069791558899    5    3   10    8
 -0.01407384419138965    5    3   10    9
 9.736411238506532e-15    5    4    5    1
 -0.01128142281405522    5    4    5    2
 0.05087367798540707    5    4    5    4
 -0.01311326653736335    5    4    8    1
 -1.116627400813527e-14    5    4    8    2
 -0.0417918489169279    5    4    8    3
 -0.03809748473488998    5    4    8    7
 -0.003075865389876836    5    4    9    1
 -2.621024706848795e-15    5    4    9    2
 -0.009802752143890054    5    4    9    3
 -0.008936197125523447    5    4    9    7
 0.02383572756838222    5    4   10    5
 0.68797909918196    5    5    1    1
 0.688023040658639    5    5    2    2
 -0.001513885475076978    5    5    3    1
 -1.2850931182543e-15    5    5    3    2
 0.6171757554628708    5    5    3    3
 -6.800117606590577e-15    5    5    4    1
 0.007728678125729184    5    5    4    2
 0.5100096682483714    5    5    4    4
 0.5880333086470351    5    5    5    5
 0.540052198732309    5    5    6    6
 -0.008948140978262844    5    5    7    1
 -7.688023491708353e-15    5    5    7    2
 -0.04695975965789859    5    5    7    3
 0.5177651312330857    5    5    7    7
 0.5846930680203557    5    5    8    8
 0.01017271701860854    5    5    9    8
 0.5437100824683967    5    5    9    9
 5.394110647372856e-15    5    5   10    1
 -0.006439462220086947    5    5   10    2
 0.04167203528547839    5    5   10    4
 -1.169038715218192e-15    5    5   10    7
 0.6199586921604173    5    5   10   10
 2.009443334118318e-15    6    1    1    1
 1.527431516037781e-15    6    1    2    1
 2.00710884683487e-15    6    1    2    2
 0.009770974882974608    6    1    6    1
 0.0166207301027445    6    1    6    3
 9.729925307168369e-15    6    1    6    4
 0.004861044031656123    6    1    7    6
 4.543376714113325e-15    6    1    8    1
 -0.002714720411437496    6    1    8    2
 2.247051095883705e-15    6    1    8    3
 0.00356442796756906    6    1    8    4
 1.321928408370865e-15    6    1    8    7
 -1.935344722704092e-14    6    1    9    1
 0.0115736054141908    6    1    9    2
 -9.567450661713013e-15    6    1    9    3
 -0.01519614419597118    6    1    9    4
 -5.624912041673781e-15    6    1    9    7
 7.374147692638824e-15    6    1   10    6
 0.002538822621955945    6    1   10    8
 -0.01082370439303559    6    1   10    9
 1.687881738498264e-15    6    2    1    1
 1.610973075955557e-15    6    2    2    1
 1.690548584780373e-15    6    2    2    2
 0.009269761552478276    6    2    6    2
 1.419048162097171e-14    6    2    6    3
 -0.01128142281405521    6    2    6    4
 4.337744087760478e-15    6    2    7    6
 -0.00258280405596888    6    2    8    1
 -4.53236030571246e-15    6    2    8    2
 -0.002611751084721476    6    2    8    3
 3.025962802399191e-15    6    2    8    4
 -0.001604637647147551    6    2    8    7
 0.0110112094343177    6    2    9    1
 1.93414212421665e-14    6    2    9    2
 0.0111346186396577    6    2    9    3
 -1.292543787991386e-14    6    2    9    4
 0.00684101496514971    6    2    9    7
 -0.008593671482768182    6    2   10    6
 2.169203951760118e-15    6    2   10    8
 -9.265893132075825e-15    6    2   10    9
 1.210160758749396e-15    6    3    1    1
 -1.420766710031056e-15    6    3    2    1
 1.205804835242887e-15    6    3    2    2
 2.226492240647632e-15    6    3    3    3
 0.01662073010274449    6    3    6    1
 1.419038530158861e-14    6    3    6    2
 0.1049701474299303    6    3    6    3
 1.092853043388396e-15    6    3    7    3
 0.01384511582678479    6    3    7    6
 3.697787819679298e-15    6    3    8    1
 -0.004304170343476526    6    3    8    2
 0.0169220119151723    6    3    8    4
 -1.575379774891978e-14    6    3    9    1
 0.01834987094103055    6    3    9    2
 -0.07214322620307473    6    3    9    4
 -1.297149730561595e-15    6    3    9    6
 1.074910157619085e-15    6    3    9    7
 0.01407384419138963    6    3   10    8
 -0.06000069791558901    6    3   10    9
 1.563311834319317e-15    6    3   10   10
 5.289695691678242e-15    6    4    2    1
 -1.931676337895724e-15    6    4    4    3
 9.729681673271161e-15    6    4    6    1
 -0.01128142281405521    6    4    6    2
 0.05087367798540707    6    4    6    4
 -3.59416166947894e-15    6    4    7    4
 0.00307586538987683    6    4    8    1
 2.614562981962149e-15    6    4    8    2
 0.009802752143890037    6    4    8    3
 3.198746712926228e-15    6    4    8    5
 0.008936197125523432    6    4    8    7
 -0.01311326653736335    6    4    9    1
 -1.116840623033599e-14    6    4    9    2
 -0.0417918489169279    6    4    9    3
 3.921542764245038e-15    6    4    9    6
 -0.03809748473488998    6    4    9    7
 -1.251711075350354e-15    6    4   10    3
 0.02383572756838222    6    4   10    6
 2.961961175120562e-15    6    4   10    7
 0.02399055495736288    6    5    6    5
 -0.01017271701860827    6    5    8    8
 0.0204914927759793    6    5    9    8
 0.01017271701860873    6    5    9    9
 0.6879790991819598    6    6    1    1
 0.6880230406586386    6    6    2    2
 -0.001513885475076957    6    6    3    1
 -1.310035287099138e-15    6    6    3    2
 0.6171757554628705    6    6    3    3
 -6.769006888259308e-15    6    6    4    1
 0.007728678125729152    6    6    4    2
 0.5100096682483711    6    6    4    4
 0.5400521987323089    6    6    5    5
 0.5880333086470347    6    6    6    6
 -0.008948140978262827    6    6    7    1
 -7.702012459172253e-15    6    6    7    2
 -0.04695975965789857    6    6    7    3
 0.5177651312330855    6    6    7    7
 0.5437100824683967    6    6    8    8
 1.682026288202626e-15    6    6    9    4
 -0.01017271701860847    6    6    9    8
 0.5846930680203554    6    6    9    9
 5.430287695819487e-15    6    6   10    1
 -0.006439462220086974    6    6   10    2
 0.04167203528547819    6    6   10    4
 0.6199586921604174    6    6   10   10
 -0.08358407750287035    7    1    1    1
 5.604824550499275e-14    7    1    2    1
 -0.08364308789204225    7    1    2    2
 0.006565206510447279    7    1    3    1
 -0.02549703896179399    7    1    3    3
 2.549790138266633e-14    7    1    4    1
 -0.01521576171553092    7    1    4    2
 0.004206978893553515    7    1    4    4
 -0.008948140978262841    7    1    5    5
 -0.008948140978262837    7    1    6    6
 0.01426986282763665    7    1    7    1
 1.277244935368869e-15    7    1    7    2
 0.01236104591110759    7    1    7    3
 1.264071669719004e-14    7    1    7    4
 0.002700028103112913    7    1    7    7
 -3.189446441997119e-15    7    1    8    5
 -0.005357766510219365    7    1    8    8
 -3.188708129982921e-15    7    1    9    6
 -0.005357766510219365    7    1    9    9
 -9.753918987684639e-15    7    1   10    1
 0.00612119711625018    7    1   10    2
 -9.236266038849071e-15    7    1   10    3
 -0.01222982301532974    7    1   10    4
 -2.742236880875606e-15    7    1   10    7
 -0.02288005252328555    7    1   10   10
 4.312593873339853e-14    7    2    1    1
 -0.06855659345356559    7    2    2    1
 -1.91823769316052e-13    7    2    2    2
 0.007024222998447708    7    2    3    2
 -2.201115490457011e-14    7    2    3    3
 -0.01478375452012263    7    2    4    1
 -2.591291320051704e-14    7    2    4    2
 -0.0007778777746981951    7    2    4    3
 3.134359517450869e-15    7    2    4    4
 -7.686795435742217e-15    7    2    5    5
 -7.684594920883177e-15    7    2    6    6
 1.277281963753941e-15    7    2    7    1
 0.01331565198804712    7    2    7    2
 1.064143480424673e-14    7    2    7    3
 -0.01487213164452315    7    2    7    4
 2.858294852327481e-15    7    2    7    7
 0.003682146789806331    7    2    8    5
 -0.0008636892904556652    7    2    8    6
 -4.591352135976493e-15    7    2    8    8
 0.0008636892904556667    7    2    9    5
 0.00368214678980633    7    2    9    6
 -4.594432093240535e-15    7    2    9    9
 0.005030914003648223    7    2   10    1
 9.360127744675951e-15    7    2   10    2
 0.01092341405884507    7    2   10    3
 -1.057810343026951e-14    7    2   10    4
 0.003404913988231167    7    2   10    7
 -1.97279311014939e-14    7    2   10   10
 -0.06550121646318491    7    3    1    1
 2.147764814220967e-15    7    3    2    1
 -0.06555911997087253    7    3    2    2
 -0.007235154089188564    7    3    3    1
 -6.285846446546822e-15    7    3    3    2
 -0.1088646551953437    7    3    3    3
 4.376370438719983e-15    7    3    4    1
 -0.004775180513357452    7    3    4    2
 0.001135194731309621    7    3    4    4
 -0.04695975965789855    7    3    5    5
 1.092853043388396e-15    7    3    6    3
 -0.04695975965789854    7    3    6    6
 0.01236104591110758    7    3    7    1
 1.064917359642739e-14    7    3    7    2
 0.05164607770549214    7    3    7    3
 -1.412388335172763e-15    7    3    7    4
 -0.01617485682672834    7    3    7    7
 1.101917575404615e-15    7    3    8    5
 -0.02922830918125508    7    3    8    8
 -1.388040821495681e-15    7    3    9    4
 1.108545999043859e-15    7    3    9    6
 -0.02922830918125507    7    3    9    9
 -1.432936105214356e-14    7    3   10    1
 0.01678715243297154    7    3   10    2
 -0.02972206255748045    7    3   10    4
 -1.052444783470325e-15    7    3   10    9
 -0.08753998592074515    7    3   10   10
 4.326473346191318e-13    7    4    1    1
 -0.2521981419439306    7    4    2    1
 -4.314692359643556e-13    7    4    2    2
 -1.180647284538706e-14    7    4    3    1
 0.01387800268925771    7    4    3    2
 1.074395687857117e-15    7    4    3    3
 0.002323559565355377    7    4    4    1
 1.746083376451509e-15    7    4    4    2
 0.09308563583870696    7    4    4    3
 6.957414806781546e-15    7    4    4    4
 -3.594161669478941e-15    7    4    6    4
 1.264140094130758e-14    7    4    7    1
 -0.01487213164452314    7    4    7    2
 -1.413234458712976e-15    7    4    7    3
 0.2235584888602647    7    4    7    4
 1.405189050795128e-15    7    4    7    6
 -6.697474118517097e-15    7    4    7    7
 -0.1532626060404134    7    4    8    5
 0.03594948246791462    7    4    8    6
 1.415020384984301e-15    7    4    8    7
 -1.011752998188858e-15    7    4    9    3
 1.451558658255419e-15    7    4    9    4
 -0.03594948246791469    7    4    9    5
 -0.1532626060404134    7    4    9    6
 -3.628230200514576e-15    7    4    9    7
 -0.02624511337849719    7    4   10    1
 -2.253591217518976e-14    7    4   10    2
 0.0568077386204776    7    4   10    3
 -2.356482562774839e-15    7    4   10    4
 2.686055295380748e-15    7    4   10    6
 -0.1243795456013849    7    4   10    7
 0.004861044031656125    7    5    5    1
 4.334341808557709e-15    7    5    5    2
 0.0138451158267848    7    5    5    3
 0.02806054367652969    7    5    7    5
 -4.984365353510042e-15    7    5    8    1
 0.006053894627688427    7    5    8    2
 -0.03644083786632236    7    5    8    4
 1.196298108909592e-15    7    5    8    7
 -1.168202769063616e-15    7    5    9    1
 0.001420009644905168    7    5    9    2
 -0.008547611813712991    7    5    9    4
 0.0004291274302713762    7    5   10    8
 0.0001006567057001115    7    5   10    9
 -1.820308225777144e-15    7    6    2    1
 1.604501817094577e-15    7    6    3    3
 0.004861044031656123    7    6    6    1
 4.337892225742744e-15    7    6    6    2
 0.01384511582678479    7    6    6    3
 1.405189050795129e-15    7    6    7    4
 0.02806054367652968    7    6    7    6
 1.171432157533071e-15    7    6    8    1
 -0.001420009644905165    7    6    8    2
 0.008547611813712972    7    6    8    4
 -1.112164202890556e-15    7    6    8    5
 -4.98271872146058e-15    7    6    9    1
 0.006053894627688425    7    6    9    2
 -0.03644083786632236    7    6    9    4
 -1.375245186892293e-15    7    6    9    6
 1.204971726289476e-15    7    6    9    7
 1.329426316594037e-15    7    6   10    4
 -0.0001006567057001111    7    6   10    8
 0.0004291274302713715    7    6   10    9
 0.6854056843138084    7    7    1    1
 8.070708687338696e-15    7    7    2    1
 0.6853423268081693    7    7    2    2
 -0.008976129056388248    7    7    3    1
 -8.14013119982878e-15    7    7    3    2
 0.5424367785711786    7    7    3    3
 -3.215330533710001e-15    7    7    4    1
 0.003724264940384172    7    7    4    2
 -3.251769390683007e-15    7    7    4    3
 0.5570968878592949    7    7    4    4
 0.5177651312330858    7    7    5    5
 0.5177651312330857    7    7    6    6
 0.002700028103112907    7    7    7    1
 2.850848464039735e-15    7    7    7    2
 -0.01617485682672832    7    7    7    3
 -6.735706033666162e-15    7    7    7    4
 0.5849179963615125    7    7    7    7
 5.07959114963122e-15    7    7    8    5
 -1.069733221755775e-15    7    7    8    6
 0.5405366748405791    7    7    8    8
 -1.242061374161898e-15    7    7    9    4
 1.215612261649242e-15    7    7    9    5
 5.119007697876825e-15    7    7    9    6
 0.540536674840579    7    7    9    9
 -9.708503725703873e-15    7    7   10    1
 0.01211853702367456    7    7   10    2
 -1.853244113358321e-15    7    7   10    3
 -0.02745131919604376    7    7   10    4
 4.348527043565398e-15    7    7   10    7
 0.5940888591771093    7    7   10   10
 -1.935467222059551e-14    8    1    5    1
 0.01101120943431771    8    1    5    2
 -1.575269330263549e-14    8    1    5    3
 -0.01311326653736335    8    1    5    4
 4.543365196507506e-15    8    1    6    1
 -0.00258280405596888    8    1    6    2
 3.697577347136784e-15    8    1    6    3
 0.00307586538987683    8    1    6    4
 -4.984638136370427e-15    8    1    7    5
 1.171349359645572e-15    8    1    7    6
 0.01381736176858659    8    1    8    1
 0.01344110584320159    8    1    8    3
 1.597323692840014e-14    8    1    8    4
 0.008608741470998698    8    1    8    7
 -0.009627264289158884    8    1   10    5
 0.002258184026218613    8    1   10    6
 1.078834268268958e-14    8    1   10    8
 0.0115736054141908    8    2    5    1
 1.93384320820601e-14    8    2    5    2
 0.01834987094103055    8    2    5    3
 -1.116266547179419e-14    8    2    5    4
 -0.002714720411437496    8    2    6    1
 -4.532705796183861e-15    8    2    6    2
 -0.004304170343476525    8    2    6    3
 2.614085313847112e-15    8    2    6    4
 0.006053894627688427    8    2    7    5
 -0.001420009644905164    8    2    7    6
 0.01449850429602057    8    2    8    2
 1.150601871999302e-14    8    2    8    3
 -0.01853260557412481    8    2    8    4
 7.678769927463015e-15    8    2    8    7
 -8.23782718716011e-15    8    2   10    5
 1.9301191812204e-15    8    2   10    6
 -0.01260878052881989    8    2   10    8
 -9.567370800673629e-15    8    3    5    1
 0.0111346186396577    8    3    5    2
 -0.0417918489169279    8    3    5    4
 2.247118981315554e-15    8    3    6    1
 -0.002611751084721476    8    3    6    2
 0.009802752143890033    8    3    6    4
 0.01344110584320159    8    3    8    1
 1.150327565780071e-14    8    3    8    2
 0.04424917100755784    8    3    8    3
 0.02499685655616154    8    3    8    7
 -0.03311660499081494    8    3   10    5
 0.007767875291121107    8    3   10    6
 -0.01519614419597118    8    4    5    1
 -1.291943724274552e-14    8    4    5    2
 -0.07214322620307474    8    4    5    3
 0.003564427967569061    8    4    6    1
 3.025814865276609e-15    8    4    6    2
 0.0169220119151723    8    4    6    3
 -0.03644083786632237    8    4    7    5
 0.008547611813712976    8    4    7    6
 1.597417614913924e-14    8    4    8    1
 -0.01853260557412482    8    4    8    2
 0.08236493094061516    8    4    8    4
 0.03605239402990015    8    4   10    8
 -4.591736016597361e-13    8    5    1    1
 0.2680769367387377    8    5    2    1
 4.593304425726974e-13    8    5    2    2
 7.390585350681919e-15    8    5    3    1
 -0.008606721006899588    8    5    3    2
 0.002673632834369113    8    5    4    1
 2.330227899571271e-15    8    5    4    2
 -0.09413735000179889    8    5    4    3