 &FCI NORB=   6,NELEC= 6,MS2=0,
  ORBSYM=1,1,1,1,1,1,
  ISYM=1,
 &END
 0.5880333086470344    1    1    1    1
 0.540052198732309    1    1    2    2
 0.5177651312330855    1    1    3    3
 0.5870370665393891    1    1    4    4
 0.001387726573970148    1    1    5    4
 0.5413660839493634    1    1    5    5
 0.6199586921604161    1    1    6    6
 0.02399055495736287    2    1    2    1
 0.00138772657396997    2    1    4    4
 -0.02283549129501259    2    1    5    4
 -0.001387726573970279    2    1    5    5
 0.5400521987323089    2    2    1    1
 0.5880333086470353    2    2    2    2
 0.517765131233086    2    2    3    3
 0.5413660839493643    2    2    4    4
 -0.001387726573970146    2    2    5    4
 0.587037066539389    2    2    5    5
 0.6199586921604171    2    2    6    6
 0.02806054367652967    3    1    3    1
 1.144358640165303e-15    3    1    4    1
 0.0004405714980966255    3    1    6    4
 1.337456087947204e-05    3    1    6    5
 0.02806054367652969    3    2    3    2
 1.337456087947173e-05    3    2    6    4
 -0.0004405714980966199    3    2    6    5
 0.5177651312330855    3    3    1    1
 0.517765131233086    3    3    2    2
 0.5849179963615129    3    3    3    3
 2.296686240397114e-15    3    3    4    1
 0.5405366748405797    3    3    4    4
 -2.040871538685833e-15    3    3    5    2
 0.5405366748405793    3    3    5    5
 2.231001314884746e-15    3    3    6    3
 0.5940888591771093    3    3    6    6
 1.144358640165304e-15    4    1    3    1
 2.32034951562612e-15    4    1    3    3
 0.1875064799402611    4    1    4    1
 0.005116010670182139    4    1    4    2
 2.736131005041662e-15    4    1    4    3
 0.005116010670182217    4    1    5    1
 -0.149546602482811    4    1    5    2
 -1.342797896682382e-15    4    1    6    1
 0.09209027445052301    4    1    6    3
 0.005116010670182135    4    2    4    1
 0.01913524699642725    4    2    4    2
 -0.01882463046102271    4    2    5    1
 -0.005116010670182173    4    2    5    2
 0.002795612034293789    4    2    6    3
 2.736131005041662e-15    4    3    4    1
 0.03816957457881424    4    3    4    3
 -2.722032435020722e-15    4    3    5    2
 -0.004413733723761743    4    3    6    1
 -0.0001339890361706549    4    3    6    2
 1.62890913352049e-15    4    3    6    3
 0.587037066539389    4    4    1    1
 0.001387726573969964    4    4    2    1
 0.541366083949364    4    4    2    2
 0.5405366748405798    4    4    3    3
 0.6047495644207173    4    4    4    4
 0.5546128382886495    4    4    5    5
 0.6213509929541191    4    4    6    6
 0.005116010670182216    5    1    4    1
 -0.01882463046102271    5    1    4    2
 0.01913524699642723    5    1    5    1
 -0.005116010670182193    5    1    5    2
 0.002795612034293813    5    1    6    3
 -2.050379829605935e-15    5    2    3    3
 -0.1495466024828109    5    2    4    1
 -0.005116010670182174    5    2    4    2
 -2.722032435020721e-15    5    2    4    3
 -0.005116010670182192    5    2    5    1
 0.1875064799402611    5    2    5    2
 1.432593942430115e-15    5    2    6    1
 -0.09209027445052301    5    2    6    3
 0.03816957457881421    5    3    5    3
 -0.0001339890361706564    5    3    6    1
 0.00441373372376175    5    3    6    2
 0.001387726573970155    5    4    1    1
 -0.0228354912950126    5    4    2    1
 -0.001387726573970146    5    4    2    2
 0.02506836306603343    5    4    5    4
 0.5413660839493633    5    5    1    1
 -0.001387726573970281    5    5    2    1
 0.587037066539389    5    5    2    2
 0.5405366748405793    5    5    3    3
 0.5546128382886495    5    5    4    4
 0.6047495644207163    5    5    5    5
 0.6213509929541186    5    5    6    6
 -1.342797896682381e-15    6    1    4    1
 -0.004413733723761741    6    1    4    3
 1.432593942430114e-15    6    1    5    2
 -0.0001339890361706563    6    1    5    3
 0.03533445793527181    6    1    6    1
 -0.0001339890361706549    6    2    4    3
 0.004413733723761737    6    2    5    3
 0.03533445793527182    6    2    6    2
 2.197285082600462e-15    6    3    3    3
 0.09209027445052295    6    3    4    1
 0.002795612034293791    6    3    4    2
 1.628909133520489e-15    6    3    4    3
 0.002795612034293815    6    3    5    1
 -0.09209027445052294    6    3    5    2
 0.09181505172479744    6    3    6    3
 0.0004405714980966397    6    4    3    1
 1.337456087947217e-05    6    4    3    2
 0.04716361027124548    6    4    6    4
 1.337456087947212e-05    6    5    3    1
 -0.0004405714980966437    6    5    3    2
 0.04716361027124542    6    5    6    5
 0.6199586921604163    6    6    1    1
 0.6199586921604168    6    6    2    2
 0.5940888591771093    6    6    3    3
 0.6213509929541188    6    6    4    4
 0.6213509929541182    6    6    5    5
 1.27582492067819e-15    6    6    6    3
 0.7600248802188235    6    6    6    6
 -3.223008860816995    1    1  0  0
 -3.223008860816997    2    2  0  0
 -1.877767023214123e-15    3    1  0  0
 -3.138713254260249    3    3  0  0
 -4.733715223146922e-15    4    1  0  0
 -2.812881863346257    4    4  0  0
 2.598753084669413e-15    5    2  0  0
 -2.812881863346254    5    5  0  0
 1.139287372675538e-15    6    1  0  0
 -2.879158970222892e-15    6    3  0  0
 -2.387976037073962    6    6  0  0
 -96.23012973383803  0  0  0  0
