 &FCI NORB= 8, NELEC= 8, MS2= 0
  ORBSYM=1,1,1,1,1,1,1,1
  ISYM=1
 &END
 -2.734509958568119181e+00        8        8        0        0
  3.227981476129415881e-15        7        8        0        0
 -2.615004396694182276e+00        7        7        0        0
 -4.138345554462223681e-12        6        7        0        0
 -2.631710459741143815e+00        6        6        0        0
 -5.904331373150342835e-15        5        7        0        0
  4.689883960653655345e-15        4        7        0        0
  2.291247234053730590e-15        4        6        0        0
 -3.243015873672233873e+00        1        1        0        0
 -1.213728863734113042e-15        2        5        0        0
  1.271042896511678486e-11        1        2        0        0
  1.008166433296211139e-15        2        6        0        0
  1.594026038356933517e-01        1        3        0        0
 -2.714607192633809341e+00        4        4        0        0
  6.062276029569683768e-15        2        7        0        0
 -1.787697794918316162e-11        1        8        0        0
 -2.836824229530622965e+00        3        3        0        0
 -3.100115034833211602e+00        2        2        0        0
 -9.300793002444939206e-12        2        3        0        0
  2.673790995284916858e-12        4        5        0        0
 -2.241428970353700478e-01        2        8        0        0
 -1.045967968846698259e-15        3        4        0        0
 -2.680156951839178792e+00        5        5        0        0
  3.309920696504178521e-12        3        8        0        0
 -3.369200730725167998e-11        6        7        7        7
  1.425252702399459892e-01        6        7        6        7
  3.823004288226885588e-11        6        7        6        6
  3.022434577782914760e-15        1        8        5        7
 -2.805430309744358364e-02        1        8        3        8
 -1.076156258829218409e-12        1        8        2        8
  3.731296899178006554e-01        5        5        5        5
  1.593830717726348045e-02        4        8        4        8
  1.204410712892475513e-11        1        6        2        6
 -3.174446300515567331e-12        1        3        3        8
 -1.033557736287952482e-15        1        6        3        5
  2.658718067282124564e-11        1        1        6        7
  4.298682484326953554e-15        1        7        2        5
  2.275132158030382729e-11        2        2        3        8
 -1.155710703093769559e-15        1        3        5        6
 -1.520955002014751414e-12        2        3        5        5
  1.677171132220653796e-13        4        8        5        8
 -1.415329126199969479e-15        2        2        5        6
 -1.071185227031423159e-15        1        5        3        6
  7.116402136595355086e-12        2        8        2        3
  7.724177963690351217e-12        1        7        1        6
  1.940832873110398382e-15        2        3        3        7
  5.842052848652355606e-15        2        3        4        6
 -1.776589534709066907e-12        2        5        3        5
 -1.384139274161725220e-15        2        6        2        5
  2.526118176812314655e-12        3        7        7        8
  3.653378224083834094e-11        1        2        6        6
 -3.665745751878299147e-15        3        8        6        8
  1.511861219494401351e-15        5        6        7        7
  1.640017037587058962e-12        4        5        8        8
  2.839521447662341737e-11        3        8        7        7
  3.574499360387800029e-01        4        4        8        8
  9.626910931266436169e-03        2        7        7        8
 -1.166686162720843994e-01        3        8        6        7
  3.439643598069437314e-01        6        6        6        6
  3.528535291406395111e-12        2        8        4        5
 -3.905637716416004891e-12        2        7        3        7
 -1.208345780801738274e-02        3        6        7        8
 -1.491715334906630536e-11        2        3        7        7
  5.712183873439654250e-13        1        5        5        8
  1.394141767955871364e-15        1        4        6        8
  3.235711313991241958e-12        3        3        6        7
 -3.989983289915914475e-12        1        2        8        8
  2.897044559315097752e-15        1        8        4        6
  1.341659077188401864e-12        2        4        5        8
  1.080181926664709878e-15        1        6        4        8
  1.134895517648458475e-15        1        8        3        7
  1.817081087314808332e-15        2        3        6        8
  1.123231082605922769e-12        2        5        4        8
 -5.153541005645022643e-13        3        4        4        8
 -3.625897795107247625e-15        3        7        4        5
 -5.352656372306069707e-12        3        8        4        4
  1.414626949001401672e-02        5        7        5        7
 -3.237533160357661050e-15        4        4        5        6
  4.279960942740776453e-12        4        5        5        5
 -1.215142209079911942e-15        1        7        6        7
  4.175391924786239590e-12        1        6        6        8
  3.110102099010375985e-12        3        8        5        5
  5.937491864719142459e-12        4        4        6        7
 -1.445162812803692008e-15        5        6        5        5
  1.093959847273714617e-15        1        7        5        8
  1.440155409538038276e-15        1        5        7        8
 -1.153221580399762702e-15        3        4        6        8
  4.277829793047075548e-13        4        7        4        6
  1.446884310032333689e-12        2        3        8        8
 -3.320918053513403401e-11        4        5        6        6
 -1.429190748740180576e-15        3        3        7        8
  2.368064513793895148e-12        2        8        3        8
  2.086412550172061949e-13        3        5        5        8
 -3.679179631444590516e-15        3        8        3        7
  1.705657882935564251e-02        5        8        5        8
 -1.362125422202453839e-14        4        5        5        7
 -2.979453737277701803e-15        4        7        5        5
  1.204146033740124966e-02        5        6        5        6
  1.130804606884795900e-02        1        7        6        8
  1.463436066139210852e-02        1        6        7        8
  3.315515158027350084e-01        4        4        7        7
 -1.320293807894998457e-02        4        6        5        7
 -1.222330552945690221e-02        4        7        5        6
 -1.258200405001493050e-01        4        5        6        7
  3.935115077517346571e-01        3        3        8        8
 -8.067925089156648015e-12        1        8        1        3
  1.373494292565307364e-14        1        2        4        6
 -3.792581754334479504e-12        1        3        4        5
 -4.039014110666854595e-13        1        5        2        5
 -5.274877503519261330e-12        1        8        2        2
  1.671873230515541406e-15        1        3        2        7
  4.218736710198926459e-15        1        6        2        4
  2.439415314424280760e-11        2        2        4        5
 -2.582867277385874362e-13        1        5        3        4
 -7.016923295664828643e-12        1        2        2        8
  3.179939374041019368e-02        2        8        6        6
 -2.603151057957178518e-11        1        1        3        8
  4.176505407885341332e-15        1        2        3        7
  3.823723712744325960e-12        2        3        4        4
  1.293273321173634126e-15        1        8        2        6
 -1.104665164313391072e-11        1        7        2        7
  4.188971320503604528e-15        1        2        6        8
 -3.574211330505526195e-11        1        2        7        7
  1.893941919458470100e-12        1        6        3        7
  9.107961781869788886e-03        2        6        6        8
  5.038440049188517760e-12        1        3        6        7
 -1.036755921428080472e-15        1        1        7        8
 -6.432069567566107472e-12        4        5        4        4
  1.587432419189348586e-15        1        6        2        8
 -2.104708959938440749e-11        2        2        6        7
  1.501464429657271283e-12        1        7        3        6
  1.463316483073186301e-12        1        4        4        8
  6.009648507636192905e-15        2        3        5        7
  1.745974187481281883e-11        2        3        6        6
  1.405018978267305596e-01        3        8        3        8
  1.303014710495857638e-15        2        5        3        7
  2.227122299408083630e-12        2        6        3        6
  1.151690749449842535e-15        1        7        3        8
 -2.809911557393501243e-12        3        8        3        3
 -8.805880911449682326e-13        2        7        6        8
 -4.742811185299938619e-12        1        2        5        5
 -1.146541348857399313e-14        3        8        5        7
  1.186126683188602220e-15        1        8        6        8
  1.241061918370264805e-02        4        7        4        7
 -2.286911175294380038e-12        1        7        7        8
  3.081985090772496007e-11        4        5        7        7
 -1.241511104667151314e-15        2        7        7        7
 -3.966770314103158269e-12        2        8        6        7
  3.674936516794210044e-15        3        7        6        7
 -3.107086629116023901e-11        3        8        6        6
 -3.667714951583178844e-15        4        5        6        8
  3.145814647799729621e-12        4        7        5        7
  1.717157516083509263e-15        4        7        6        6
 -2.649548123702849899e-11        1        2        2        2
  1.259424960537003368e-02        3        4        5        8
  3.848532115134320475e-01        2        2        8        8
  1.239455757928999130e-15        2        4        3        6
  1.453147521966582922e-02        3        7        3        7
  1.241796920362554513e-01        3        8        4        5
 -3.239492932313810247e-02        1        3        8        8
  3.442822434209399374e-01        3        3        7        7
  1.250948852250255940e-14        5        7        6        7
  3.276347848137046714e-01        4        4        6        6
  1.407014741200891056e-14        1        2        5        7
  1.040226821860190491e-02        2        5        5        8
  5.293658942650524039e-15        1        5        2        7
  5.722814202113252202e-02        2        8        2        8
  9.478056258743651832e-03        3        5        4        8
 -2.441580490249577095e-12        3        3        4        5
  1.297120391202334112e-02        4        6        4        6
  3.002743011078247773e-02        1        8        6        7
  1.505282118210565095e-02        3        5        3        5
  1.660920720650954901e-05        1        6        3        6
  1.434724618975363464e-01        1        2        6        7
  4.517625927785810791e-02        1        7        1        7
  5.409518696083220196e-02        1        6        2        7
  4.454796431908176341e-02        1        7        2        6
  3.510951575887350518e-01        2        2        6        6
  3.651204427640541983e-01        1        1        7        7
 -2.066559637134753741e-02        1        3        6        6
 -3.294579911851059677e-12        4        6        5        6
  3.530216647281684827e-01        3        3        5        5
 -6.622822254865898262e-02        2        3        3        8
  4.430171263881975408e-02        2        6        2        6
  1.590237127014483901e-02        2        8        3        3
  3.647934117819218724e-01        4        4        4        4
  4.557902410650130354e-02        1        1        2        8
  3.409843902392761111e-02        1        8        1        2
 -5.287741356420468696e-12        1        8        7        7
  3.642168953482102234e-01        2        2        4        4
 -1.530649550760397049e-01        1        2        4        5
  1.394169612670300134e-04        1        4        3        4
  3.753326889103248964e-01        1        1        5        5
 -4.776982144416475756e-02        1        5        2        4
 -2.118711758623901750e-02        1        3        4        4
  4.797114178956640024e-02        1        5        1        5
 -6.285133091884554507e-12        2        7        2        6
 -5.728831855268161355e-02        1        4        2        5
  1.562584514127919892e-11        1        1        2        3
  4.791330266979664659e-02        2        4        2        4
 -5.725926632684381901e-02        1        3        2        8
 -9.028432457356072582e-03        3        7        6        8
  3.615255169758319620e-01        1        1        6        6
  2.538824193169224373e-12        1        8        8        8
  3.727068730306542510e-01        2        2        5        5
  5.402870462002522939e-02        1        6        1        6
  3.952332362830879298e-01        3        3        3        3
 -1.428750675160823380e-01        1        2        3        8
 -8.851642014817627871e-03        1        3        5        5
 -6.450092849007917073e-02        2        3        4        5
  1.111776647036991951e-02        1        5        3        5
 -1.311575383945971339e-14        4        6        4        5
  3.505018751100732466e-01        3        3        4        4
  1.151949792473675079e-02        2        8        2        2
  1.173468673406918552e-14        3        7        3        6
 -1.311345243169391786e-02        2        4        3        5
  6.051387320791652008e-02        2        5        2        5
  1.581336168707050960e-02        3        4        3        4
 -3.109615031066865001e-02        1        8        2        3
  1.114188610435944384e-12        1        4        2        4
  2.572041975678534056e-02        2        8        5        5
 -1.289534490336764772e-15        1        1        2        7
 -2.742917658270217242e-11        1        1        4        5
 -1.110663539556666581e-14        3        8        4        6
  4.814065823987011031e-12        1        2        4        4
  9.863496627088825116e-12        1        8        1        1
 -9.140749591939305849e-12        1        5        1        4
  1.645313755561947624e-12        2        3        3        3
  3.938458282503018992e-01        1        1        2        2
  1.670579334152423323e-01        1        2        1        2
  7.845297606235295264e-13        1        3        2        3
 -7.710559577080078678e-03        2        5        3        4
  1.614994322576673866e-12        1        2        3        3
 -1.178394444641337810e-11        2        3        2        2
 -7.587582677769742030e-14        2        4        3        4
  3.909533808789502629e-01        1        1        3        3
  8.509906193206207971e-12        2        5        2        4
  7.390074560156566219e-02        1        2        2        3
  1.264315786668358146e-12        1        8        5        5
  4.001165697841271296e-01        2        2        2        2
  6.786657151475895822e-02        1        3        1        3
  4.886963456134308520e-03        1        3        2        2
  1.085138324194437690e-02        1        7        3        7
  1.532011794138655840e-02        3        6        3        6
 -3.667265420044922564e-02        1        3        1        1
  5.716178060296669278e-02        1        8        1        8
  4.011596052077252561e-01        1        1        8        8
  1.075701551918393714e-02        2        4        4        8
 -1.123566653824482600e-12        2        6        7        8
 -8.526981827793045365e-03        1        3        7        7
 -1.591546206210826125e-02        1        4        5        8
  5.213751225203029666e-15        1        4        2        6
  5.805588341617844150e-02        2        7        2        7
 -1.284121428695050686e-02        1        5        4        8
 -1.160778902887332579e-15        3        5        7        8
  3.626884940591512674e-01        2        2        7        7
 -2.819549417656353639e-12        3        6        6        8
  6.165554692452548252e-02        2        3        6        7
 -9.758840283733620702e-14        5        7        5        6
  3.668017591013125744e-01        4        4        5        5
  1.277450530353658499e-02        2        6        3        7
 -6.463046977510597649e-13        1        4        3        5
  7.458401854914128992e-03        2        7        3        6
  3.414391765496437026e-02        2        8        4        4
  1.253440703414388143e-14        4        6        6        7
  3.393233052331747768e-01        3        3        6        6
 -3.348103660924395958e-02        1        8        4        5
  2.418105395621956283e-02        2        8        7        7
  1.591663573649872709e-01        4        5        4        5
 -1.608947713251336967e-02        1        3        3        3
  1.056044066166859843e-11        1        8        6        6
 -8.566901405605565145e-14        3        5        3        4
  3.833568434309531092e-01        2        2        3        3
  5.791295974250276757e-02        1        4        1        4
  3.748183152660340967e-01        1        1        4        4
  7.556716783821809669e-02        2        3        2        3
  4.086899167215048978e-01        8        8        8        8
  4.153781052259467166e-12        1        8        4        4
  3.496559432112142929e-01        7        7        8        8
  1.624210517845458071e-02        7        8        7        8
  2.717452955034423140e-12        1        8        3        3
  3.557049470086244836e-01        7        7        7        7
 -2.142614198330239702e-12        5        5        6        7
  1.448306268925094765e-02        6        8        6        8
  3.448358825951927664e-01        6        6        8        8
  4.132427302529114166e-01        1        1        1        1
  8.421282501464457508e-12        1        3        1        2
  3.591742529973143694e-01        5        5        8        8
  3.472265104879969644e-01        6        6        7        7
  3.661533842353557194e-02        2        8        8        8
  2.756617351092199533e-11        1        2        1        1
 -5.513130926053120559e-13        6        7        8        8
  3.356719161205064528e-01        5        5        7        7
  8.084846402507428107e-14        6        8        7        8
  3.284680090055311918e-01        5        5        6        6
  3.737337360717272355e-15        6        8        6        7
  1.519917630158943416e-12        3        8        8        8
 -6.112892969061692128e+01        0        0        0        0
