 &FCI NORB=   6,NELEC= 6,MS2=0,
  ORBSYM=1,1,1,1,1,1,
  ISYM=1,
 &END
 0.5880333086470337    1    1    1    1
 0.5400521987323083    1    1    2    2
 0.5177651312330853    1    1    3    3
 0.5860039748602642    1    1    4    4
 0.006931148441476927    1    1    5    4
 0.5423991756284869    1    1    5    5
 0.619958692160417    1    1    6    6
 0.02399055495736285    2    1    2    1
 0.006931148441477128    2    1    4    4
 -0.02180239961588878    2    1    5    4
 -0.006931148441477052    2    1    5    5
 0.5400521987323083    2    2    1    1
 0.5880333086470343    2    2    2    2
 0.5177651312330857    2    2    3    3
 0.5423991756284866    2    2    4    4
 -0.006931148441477319    2    2    5    4
 0.5860039748602652    2    2    5    5
 0.6199586921604174    2    2    6    6
 0.02806054367652968    3    1    3    1
 0.0004355647094340115    3    1    6    4
 6.756854082586348e-05    3    1    6    5
 0.0280605436765297    3    2    3    2
 6.756854082586359e-05    3    2    6    4
 -0.0004355647094340112    3    2    6    5
 0.5177651312330853    3    3    1    1
 0.5177651312330857    3    3    2    2
 0.5849179963615132    3    3    3    3
 0.540536674840579    3    3    4    4
 0.5405366748405795    3    3    5    5
 0.5940888591771097    3    3    6    6
 0.1836978708433311    4    1    4    1
 0.0255524611608227    4    1    4    2
 1.150630479326323e-15    4    1    4    3
 0.02555246116082266    4    1    5    1
 -0.1457379933858811    4    1    5    2
 0.09104373252933107    4    1    6    3
 0.02555246116082271    4    2    4    1
 0.02294385609335689    4    2    4    2
 -0.01501602136409301    4    2    5    1
 -0.02555246116082275    4    2    5    2
 0.01412348618955116    4    2    6    3
 1.150630479326322e-15    4    3    4    1
 0.03816957457881424    4    3    4    3
 -1.151303021348048e-15    4    3    5    2
 -0.004363574709702546    4    3    6    1
 -0.0006769152080809516    4    3    6    2
 0.5860039748602641    4    4    1    1
 0.006931148441477131    4    4    2    1
 0.5423991756284867    4    4    2    2
 0.5405366748405791    4    4    3    3
 0.6047495644207155    4    4    4    4
 0.5546128382886489    4    4    5    5
 0.621350992954119    4    4    6    6
 0.02555246116082266    5    1    4    1
 -0.01501602136409301    5    1    4    2
 0.02294385609335689    5    1    5    1
 -0.02555246116082267    5    1    5    2
 0.01412348618955113    5    1    6    3
 -0.1457379933858811    5    2    4    1
 -0.02555246116082275    5    2    4    2
 -1.151303021348048e-15    5    2    4    3
 -0.02555246116082267    5    2    5    1
 0.1836978708433314    5    2    5    2
 -0.09104373252933112    5    2    6    3
 0.03816957457881428    5    3    5    3
 -0.0006769152080809505    5    3    6    1
 0.004363574709702557    5    3    6    2
 0.006931148441476925    5    4    1    1
 -0.02180239961588878    5    4    2    1
 -0.006931148441477291    5    4    2    2
 0.02506836306603341    5    4    5    4
 0.5423991756284869    5    5    1    1
 -0.00693114844147705    5    5    2    1
 0.5860039748602651    5    5    2    2
 0.5405366748405797    5    5    3    3
 0.5546128382886489    5    5    4    4
 0.6047495644207167    5    5    5    5
 0.6213509929541192    5    5    6    6
 -0.004363574709702554    6    1    4    3
 -0.0006769152080809505    6    1    5    3
 0.03533445793527198    6    1    6    1
 -0.0006769152080809527    6    2    4    3
 0.004363574709702557    6    2    5    3
 0.03533445793527199    6    2    6    2
 0.09104373252933107    6    3    4    1
 0.01412348618955116    6    3    4    2
 0.01412348618955112    6    3    5    1
 -0.09104373252933114    6    3    5    2
 0.09181505172479663    6    3    6    3
 1.607978752147071e-15    6    3    6    6
 0.0004355647094340208    6    4    3    1
 6.756854082586486e-05    6    4    3    2
 0.04716361027124575    6    4    6    4
 6.756854082586468e-05    6    5    3    1
 -0.0004355647094340182    6    5    3    2
 0.04716361027124581    6    5    6    5
 0.6199586921604169    6    6    1    1
 0.6199586921604172    6    6    2    2
 0.5940888591771096    6    6    3    3
 0.6213509929541187    6    6    4    4
 0.6213509929541193    6    6    5    5
 1.485580655679401e-15    6    6    6    3
 0.760024880218826    6    6    6    6
 -3.223008860816988    1    1  0  0
 -3.22300886081699    2    2  0  0
 -3.138713254260246    3    3  0  0
 1.175292884865684e-15    4    1  0  0
 -1.127755342981166e-15    4    2  0  0
 -2.812881863346248    4    4  0  0
 -1.925765622083161e-15    5    2  0  0
 -2.812881863346251    5    5  0  0
 -2.387976037073962    6    6  0  0
 -96.23012973383811  0  0  0  0
