 &FCI NORB= 4, NELEC= 4, MS2= 0
  ORBSYM=1,1,1,1
  ISYM=1
 &END
 -9.018087329905518645e-01        4        4        0        0
  8.263895132044240077e-15        3        4        0        0
 -1.743052291826937772e+00        3        3        0        0
 -5.169014821243849718e-15        2        4        0        0
 -1.743052291826937994e+00        2        2        0        0
 -4.291600104126369424e-15        1        4        0        0
  3.810137906604812482e-15        1        3        0        0
 -2.425740705692716492e+00        1        1        0        0
  5.469005726384107424e-01        2        2        3        3
  1.099054080496161281e-14        1        4        3        3
  1.450391463484654864e-01        2        4        2        4
 -2.165904302553672879e-15        1        4        2        4
  5.787498317969973494e-01        2        2        2        2
 -1.129617110128602600e-14        1        4        2        2
  5.761029768225244263e-01        1        1        4        4
  7.401683437470854554e-02        1        4        1        4
  5.807536965499361381e-01        3        3        4        4
  2.044870481521762885e-14        1        3        3        4
  1.329849828077461493e-01        1        3        2        4
  5.807536965499364712e-01        2        2        4        4
  1.400396474522115631e-01        1        3        1        3
  5.876315398545062241e-01        1        1        1        1
 -2.463864962045828381e-15        1        3        2        2
  8.171830490858727174e-15        2        3        3        3
  1.403900186894402685e-15        1        4        1        2
 -3.250905211007646625e-15        2        4        2        2
  3.025523671309147839e-15        1        2        3        3
 -2.275178745729757724e-15        2        4        3        3
 -2.765352895550069289e-15        1        2        4        4
  6.993000874345990658e-02        2        3        2        3
  2.996775480065195588e-15        3        4        3        3
  2.279994169986104054e-15        1        3        2        3
 -1.970026339339649323e-15        2        3        3        4
  6.120456227915997971e-01        4        4        4        4
  5.787498317969972383e-01        3        3        3        3
 -1.978123745016783017e-15        1        2        2        3
  1.955835644086422396e-15        1        4        3        4
 -3.294140264522592297e-15        3        4        4        4
  1.450391463484657639e-01        3        4        3        4
  1.077722646686840605e-15        1        3        1        1
  1.329849828077460661e-01        1        2        3        4
 -2.040286703432050588e-14        1        2        2        4
  1.400396474522114521e-01        1        2        1        2
  7.190414676714712572e-02        1        4        2        3
  5.670642071835187981e-01        1        1        3        3
  1.594480773814187133e-15        1        3        4        4
 -8.438013562264109065e-15        2        3        2        2
  5.670642071835189091e-01        1        1        2        2
 -1.443326727942798398e-15        1        3        3        3
  3.581348022595741032e+00        0        0        0        0
